! Touchstone file from project Project1
! Exported from HFSS 2017.1.0
# GHZ S DB R 50.000000
! Modal data exported
! Port[1] = 1:1
! Port[2] = 2:1
! Port[3] = 3:1
2.9              -0.21148658816906 -8.66528404051443 -13.4849497033415 83.5500112591331 -25.6759232493857 64.8275204118573 
                -13.4849497033415 83.5500112591332 -0.377315745326041 -1.59879806058515 -14.1578618605019 -89.1053094741142 
                -25.6759232493856 64.8275204118573 -14.1578618605018 -89.1053094741143 -0.18224923110063 6.45587163577479 
! Gamma         !               0                43.4948914269895 0                43.4948615509823 0                43.494843065829  
! Port Impedance50               0                50               0                50               0                

2.91022222222222 -0.23006525822869 -9.64943298495914 -13.1862404556219 82.3960531750091 -24.4564518184145 66.4298489263103 
                -13.1862404556165 82.3960531749996 -0.39422059998425 -2.55268523426717 -14.1162236359386 -90.2179228572975 
                -24.4564518184146 66.4298489263728 -14.1162236359403 -90.2179228572859 -0.187891831489039 5.82307554364623 
! Gamma         !               0                43.7937725905704 0                43.7937429184594 0                43.7937245594627 
! Port Impedance50               0                50               0                50               0                

2.92044444444444 -0.253309235365382 -10.7176894894606 -12.841308967834 81.1741709223504 -23.2981060086464 67.3616144060196 
                -12.8413089678254 81.1741709223365 -0.416829901061395 -3.54891280505034 -14.030500776937 -91.3896175020961 
                -23.2981060086453 67.3616144061121 -14.0305007769396 -91.3896175020766 -0.196365672889594 5.19348463454599 
! Gamma         !               0                44.0916687640364 0                44.091639292399  0                44.0916210574412 
! Port Impedance50               0                50               0                50               0                

2.93066666666667 -0.282386367682559 -11.8882390557008 -12.4481635094292 79.8640837927267 -22.1822990969097 67.7732137468462 
                -12.4481635094188 79.864083792709  -0.446285748139503 -4.60189715702798 -13.8989889946607 -92.6404751217517 
                -22.1822990969072 67.7732137469483 -13.8989889946638 -92.6404751217265 -0.208129123449943 4.56091373668791 
! Gamma         !               0                44.3885997784829 0                44.3885705039918 0                44.3885523910143 
! Port Impedance50               0                50               0                50               0                

2.94088888888889 -0.318920930224311 -13.183771525354 -12.0042222895624 78.4413289944383 -21.0925863507959 67.7537609132864 
                -12.0042222895515 78.4413289944181 -0.48421030224758 -5.72863722888568 -13.7193992557416 -93.9947067802764 
                -21.0925863507924 67.7537609133809 -13.7193992557449 -93.9947067802486 -0.223855527820806 3.91886378103244 
! Gamma         !               0                44.6845848744854 0                44.6845557939049 0                44.6845378009057 
! Port Impedance50               0                50               0                50               0                

2.95111111111111 -0.365199591126864 -14.6330818460627 -11.5062559584243 76.8755997303085 -20.0144038963704 67.3508752903833 
                -11.5062559584136 76.8755997302882 -0.53290786979867 -6.94969804518525 -13.4888020125676 -95.4823116155129 
                -20.0144038963663 67.3508752904675 -13.4888020125706 -95.4823116154839 -0.244513329310037 3.26031624998304 
! Gamma         !               0                44.9796427256793 0                44.979613835862  0                44.9795959608937 
! Port Impedance50               0                50               0                50               0                
